ITEM: TIMESTEP
1210000
ITEM: NUMBER OF ATOMS
64
ITEM: BOX BOUNDS xy xz yz pp pp pp
2.6721590419685345e+01 6.1278409580287317e+01 0.0000000000000000e+00
2.6721590419685345e+01 6.1278409580287317e+01 0.0000000000000000e+00
2.6721590419685345e+01 6.1278409580287317e+01 0.0000000000000000e+00
ITEM: ATOMS id type x y z c_q[1] c_q[2] c_q[3] c_q[4]
22 1 38.0113 29.2435 54.8982 -0.840522 0.0834303 -0.243465 0.476745
23 1 42.7662 31.3233 32.0508 -0.536974 0.179235 -0.0373314 -0.823493
26 1 44.9775 43.3246 36.0248 0.164821 0.557351 -0.811017 0.0666726
27 1 46.4936 45.7369 36.849 0.769203 -0.0626437 0.164276 0.614342
38 1 39.1337 58.7358 41.6637 0.062255 0.186883 -0.972252 0.126192
39 1 35.1097 36.4073 52.4658 -0.04542 -0.0536309 0.964353 0.255115
42 1 27.7141 36.993 49.8962 -0.279609 0.564107 0.772627 -0.081548
43 1 44.1348 37.1063 45.247 0.976268 0.0384489 0.210225 -0.0350341
25 1 28.1997 40.7322 40.5962 -0.014836 0.0550902 0.127886 0.990147
41 1 30.4771 42.702 41.7102 0.548943 -0.140131 -0.0557656 -0.822141
30 1 47.0376 46.8307 38.2093 -0.157797 -0.364289 0.910897 -0.112521
58 1 36.4324 49.7855 26.9695 0.229192 -0.503936 0.825292 -0.111414
8 1 48.2027 41.4134 27.6216 0.01555 -0.46572 0.847073 -0.255598
55 1 29.9706 28.8483 50.9329 0.217312 -0.8992 0.33946 0.170239
28 1 28.5005 37.211 39.6385 -0.765354 0.097125 -0.142422 -0.620093
44 1 26.8444 35.9218 38.349 0.15111 0.966635 0.175133 -0.11005
32 1 31.4591 59.8765 35.3762 -0.937851 0.118453 0.123552 0.301892
46 1 32.8196 46.8847 47.2463 0.212729 -0.574999 -0.789878 -0.0146628
59 1 35.4693 45.2024 52.8009 0.173853 -0.266405 -0.940151 -0.122147
60 1 40.5741 44.5024 53.5833 -0.0995931 0.0177093 0.97175 0.213236
24 1 55.0095 30.0442 39.3091 -0.145158 -0.979475 0.130139 0.0511972
31 1 50.0926 49.3071 38.657 -0.179328 -0.704865 0.685411 -0.0348933
54 1 29.8126 60.1256 51.4645 -0.159853 -0.166326 0.209362 -0.950237
64 1 46.6244 31.5073 54.4062 0.00634639 -0.900585 0.331399 0.281212
20 1 27.3274 31.5512 35.1658 0.178673 0.962901 0.200411 -0.0270873
40 1 48.2203 32.2793 45.7939 0.984126 0.108426 0.130759 -0.0513921
15 1 48.9674 60.558 29.1587 0.0934296 0.929314 -0.280126 0.221758
47 1 36.7138 40.1172 47.1796 -0.0784556 0.252253 -0.0729904 0.96171
56 1 52.8057 28.2178 46.5934 -0.882586 -0.0941011 -0.148757 -0.435957
57 1 51.1625 44.7109 53.3857 0.713228 -0.0264702 0.204726 -0.669846
63 1 46.9734 47.4779 46.7675 -0.185953 0.25374 0.949131 -0.0137075
48 1 54.0444 47.5485 48.3358 0.982375 0.0828889 0.146557 0.0811758
62 1 58.9939 53.2613 54.2348 -0.218935 0.762174 0.6018 -0.0948407
52 1 55.0105 34.3994 48.1138 0.979992 0.0267203 0.181324 -0.0776083
21 1 42.4311 40.8483 35.2923 0.971983 -0.170233 0.0428744 -0.156308
7 1 48.7553 47.0132 27.5344 -0.893474 0.225157 0.0695164 -0.38233
34 1 36.2243 37.866 34.6225 0.0279187 0.213402 0.962454 -0.165413
14 1 31.9152 53.2386 52.873 0.138027 0.238531 -0.0251192 0.960948
51 1 50.4566 50.5523 48.0427 -0.171158 -0.167167 0.0488502 -0.969729
11 1 48.4655 55.2782 28.6141 0.0453725 -0.177905 0.13318 0.973937
61 1 47.5656 58.9868 54.9557 -0.113738 -0.269166 0.937419 0.189367
29 1 30.5133 55.7297 34.4757 0.166344 0.578681 0.796797 -0.0507089
45 1 31.2573 49.216 41.6686 0.112258 0.251378 -0.953385 0.123545
16 1 29.9665 54.6412 32.7866 0.296055 -0.168582 0.0958295 0.93528
17 1 50.2441 59.5969 39.0656 -0.984505 0.164471 -0.00224401 0.060787
36 1 47.5604 55.474 45.4363 0.0290675 0.778271 -0.602128 -0.175756
9 1 27.3669 53.9967 28.1895 0.963044 -0.166437 -0.145965 0.153425
35 1 44.1727 35.1577 33.4892 -0.0450416 -0.768952 0.622583 -0.138112
49 1 57.4558 32.3894 49.7647 -0.233654 0.806048 0.512496 -0.181769
19 1 51.9846 52.8799 39.2607 -0.178049 -0.922523 0.342306 -0.00874139
5 1 60.1926 38.501 60.3126 0.822813 -0.101437 -0.249029 0.500673
3 1 43.9699 29.7276 30.2456 -0.95291 0.196487 0.183211 0.140672
1 1 56.1817 36.3943 27.6785 0.000293617 -0.970309 0.0801753 -0.228193
2 1 34.8954 60.4369 54.1847 -0.917264 -0.128013 -0.215089 -0.309801
37 1 39.2338 60.3796 43.3344 -0.719337 0.0269719 -0.0886498 -0.688453
12 1 47.6577 49.7136 28.1214 -0.958439 0.138825 0.192184 0.158703
13 1 29.3996 53.9088 30.9625 0.929672 -0.193747 -0.0854979 0.301432
10 1 33.0994 49.4104 27.1016 0.950035 -0.0096228 -0.257175 0.176641
50 1 52.5492 55.3438 54.2885 -0.960076 -0.190166 -0.160436 0.127874
53 1 58.7669 37.3426 26.9015 0.0364622 -0.251067 -0.0251857 0.966955
4 1 48.7862 29.5367 29.9117 0.665258 -0.266031 0.0140787 0.697468
18 1 39.4879 29.3938 56.0158 0.264483 -0.10016 -0.958483 -0.0364415
6 1 28.5228 42.8211 60.3874 0.263177 0.268803 -0.0242983 -0.926225
33 1 32.607 54.8925 41.5624 -0.861617 0.093874 -0.150933 -0.475418
