# LAMMPS data file written by Ovito 3.8.4

2360 atoms
695 bonds
240 angles
9 atom types
3 bond types
2 angle types

-19.056 19.056 xlo xhi
-12.527 12.527 ylo yhi
-14.6039120055 14.6039120055 zlo zhi

Masses

1 40.077999  # Ca1
2 40.077999  # Ca2
3 1.008  # H3
4 1.008  # H4
5 15.999  # O5
6 15.999  # O6
7 15.999  # O7
8 28.085501  # Si8
9 12.0107  # C9

PairIJ Coeffs # lj/cut/coul/long

1 1 5.03e-06 5.5617 10
1 2 5.03e-06 5.5617 10
1 3 0 2.78085 10
1 4 0 2.78085 10
1 5 0.0008768 4.3636 10
1 6 0.0008701 4.3636 10
1 7 0.0007045 5.4567 10
1 8 1.84e-06 3.302 10
1 9 0.133951 3.215 10
2 2 5.03e-06 5.5617 10
2 3 0 2.78085 10
2 4 0 2.78085 10
2 5 0.0006035 4.4694 10
2 6 0.00146 4.3636 10
2 7 0.00104 4.4425 10
2 8 1.84e-06 3.302 10
2 9 0.133951 3.215 10
3 3 0 0 10
3 4 0 0 10
3 5 0 0 10
3 6 0 0 10
3 7 0 0 10
3 8 0 0 10
3 9 0 1.80852 10
4 4 0 0 10
4 5 0 0 10
4 6 0 0 10
4 7 0 0 10
4 8 0 0 10
4 9 0 1.80852 10
5 5 0.1554 3.1655 10
5 6 0.005253 4.2368 10
5 7 0.8705 2.8965 10
5 8 0.0005302 3.2337 10
5 9 0.151663 3.39128 10
6 6 1.2434 2.7339 10
6 7 0.04554 3.6218 10
6 8 0.0005611 3.271 10
6 9 0.183695 3.23842 10
7 7 0.1554 3.1655 10
7 8 0.0005947 3.263 10
7 9 0.183695 3.23842 10
8 8 1.84e-06 3.302 10
8 9 0.0769592 3.83524 10
9 9 0.148 3.61705 10

Bond Coeffs # harmonic

1 277.067 1
2 277.067 1
3 480 1.4

Angle Coeffs # harmonic

1 90 120
2 22.8848 109.47

Atoms  # full

1 1 8 1.72 2.2936647215 -11.7392343013 13.6029421082 0 0 0
2 2 8 1.72 16.5409212335 -11.8896484957 14.0851924905 0 0 0
3 3 8 1.72 9.1052319215 -10.9982948215 -14.7779385983 0 0 0
4 4 8 1.72 -10.2338640145 11.7286019695 14.3273837672 0 0 0
5 5 8 1.72 -3.1782656785 -12.1642979599 13.8397007297 0 0 0
6 6 8 1.72 -18.7100490385 -11.8917680641 -14.1148681271 0 0 0
7 7 8 1.72 -3.6947213905 7.5473399095 -13.1531859177 0 0 0
8 8 8 1.72 17.9122291055 7.8715887775 13.3802908658 0 0 0
9 9 8 1.72 8.0086734575 9.7657964475 -13.8939167801 0 0 0
10 10 8 1.72 -7.9924591825 10.6234199215 -13.2996193433 0 0 0
11 11 8 1.72 17.9256064175 10.6484238135 -14.4852671473 0 0 0
12 12 8 1.72 6.7843635695 12.6187455355 -14.1199911795 0 0 0
13 13 8 1.72 -10.3332219985 7.5363412035 -14.0269671808 0 0 0
14 14 8 1.72 1.8706977455 9.0313384375 -13.5435368024 0 0 0
15 15 8 1.72 13.8162181295 8.3637996615 -13.7042148839 0 0 0
16 16 8 1.72 14.8969601135 -10.3646616237 -13.2363201471 0 0 0
17 17 8 1.72 12.6981263855 10.8521378875 -13.1488397934 0 0 0
18 18 8 1.72 -12.2098187665 9.5534637975 -14.7150296187 0 0 0
19 19 8 1.72 13.3829990255 -8.2889677885 -12.2237666706 0 0 0
20 20 8 1.72 -1.0288632145 8.8176278175 -13.1460241592 0 0 0
21 21 8 1.72 2.5009177775 -10.3721402427 -13.261100065 0 0 0
22 22 8 1.72 -10.2448783825 -10.5817845985 -13.6371858486 0 0 0
23 23 8 1.72 -11.1268662865 -7.6670272925 -13.9320797229 0 0 0
24 24 8 1.72 -17.0414027761 -10.1235294007 -12.5651360345 0 0 0
25 25 8 1.72 -4.0307548945 -10.0804089613 -13.7174693944 0 0 0
26 26 8 1.72 7.9154515055 -10.5746667571 -12.2496915352 0 0 0
27 27 8 1.72 4.8624897455 3.5443871675 -9.7812214967 0 0 0
28 28 8 1.72 1.5180474095 -7.4879162465 -13.6506740217 0 0 0
29 29 8 1.72 -18.7807887217 -7.7014013805 -13.1470668785 0 0 0
30 30 8 1.72 10.9019078255 3.4419163075 -11.8310265858 0 0 0
31 31 8 1.72 5.7607133615 0.8496290355 -10.4908547889 0 0 0
32 32 8 1.72 -5.8526609425 -7.5088112825 -13.2259922606 0 0 0
33 33 8 1.72 -14.2956123025 3.6105046735 -13.6107323224 0 0 0
34 34 8 1.72 -15.2272220305 -4.0869109085 -13.7446034629 0 0 0
35 35 8 1.72 10.2330803375 -4.8631840445 -12.1573276333 0 0 0
36 36 8 1.72 6.3871984175 -7.9071448285 -11.8198107814 0 0 0
37 37 8 1.72 8.3451643055 -2.4617080365 -11.6854255831 0 0 0
38 38 8 1.72 -12.3421817425 1.4669595955 -13.4249209083 0 0 0
39 39 8 1.72 -16.5777969745 -1.7377476525 -12.6746478498 0 0 0
40 40 8 1.72 -8.3722452625 3.4560217095 -11.7967950161 0 0 0
41 41 8 1.72 -1.4875792465 -4.2416945205 -12.8426191249 0 0 0
42 42 8 1.72 16.2345388655 -3.6402732505 -11.5411389325 0 0 0
43 43 8 1.72 -2.7812148625 2.0647730895 -11.349856893 0 0 0
44 44 8 1.72 -3.6519597265 -2.8214584225 -11.4727342087 0 0 0
45 45 8 1.72 -8.1788268625 -3.6376676345 -13.2101586992 0 0 0
46 46 8 1.72 16.0413872495 4.6249661875 -11.4156621205 0 0 0
47 47 8 1.72 12.8590352495 1.7011894415 -11.149549636 0 0 0
48 48 8 1.72 4.1181623855 -4.4341092405 -11.1134487655 0 0 0
49 49 8 1.72 18.2905669295 2.2377709595 -11.7062215538 0 0 0
50 50 8 1.72 -0.0799125265 0.8837525835 -10.2673857274 0 0 0
51 51 8 1.72 15.0981533615 -1.9276820265 -9.6693555307 0 0 0
52 52 8 1.72 -7.5563054545 1.1086873955 -10.2451585733 0 0 0
53 53 8 1.72 2.7558108335 -2.1385114365 -10.0499918933 0 0 0
54 54 8 1.72 -10.2109205905 -2.0072284765 -11.5942095487 0 0 0
55 55 8 1.72 -9.4596187345 9.0456192175 -11.409440854 0 0 0
56 56 8 1.72 15.3275113775 9.8911917175 -9.6099468167 0 0 0
57 57 8 1.72 4.3428707375 -12.4262307653 -9.2847176963 0 0 0
58 58 8 1.72 11.8289822255 -11.8445688335 -9.3289675497 0 0 0
59 59 8 1.72 5.3354977775 9.7590569215 -8.9273015539 0 0 0
60 60 8 1.72 -15.4946234449 9.2857116995 -10.8757262859 0 0 0
61 61 8 1.72 -7.7675602705 7.7615015015 -9.622681428 0 0 0
62 62 8 1.72 -1.5134572945 -10.8041413539 -10.938610731 0 0 0
63 63 8 1.72 -13.1713083025 -11.6122105213 -10.8412902614 0 0 0
64 64 8 1.72 -7.3926144145 -11.6394717787 -9.3805485669 0 0 0
65 65 8 1.72 -5.2308255505 -11.1616919987 -7.1990161915 0 0 0
66 66 8 1.72 17.9534662895 8.5283042255 -9.90681514 0 0 0
67 67 8 1.72 14.6536149935 -9.3424884885 -7.0240029101 0 0 0
68 68 8 1.72 4.6540552175 -9.7947883505 -7.8284740068 0 0 0
69 69 8 1.72 -18.8028822481 -11.7091469527 -10.9554928532 0 0 0
70 70 8 1.72 -15.9317261617 -8.4682041045 -10.4811869991 0 0 0
71 71 8 1.72 -8.8730750545 -9.3648867645 -9.1228187278 0 0 0
72 72 8 1.72 -12.9608157265 7.5962703715 -8.0395881588 0 0 0
73 73 8 1.72 12.6122981615 7.8921831655 -9.2855355154 0 0 0
74 74 8 1.72 8.4923528495 11.1410606155 -7.0162044211 0 0 0
75 75 8 1.72 -2.7405112465 -8.3965747185 -10.2000324852 0 0 0
76 76 8 1.72 14.7783555695 -7.6339560125 -9.6140359121 0 0 0
77 77 8 1.72 2.0962064495 -8.9186499705 -8.5138063894 0 0 0
78 78 8 1.72 9.2191486895 -7.9489599545 -8.2521919097 0 0 0
79 79 8 1.72 8.0689666415 -5.0928039545 -7.8913000362 0 0 0
80 80 8 1.72 -11.2996279825 -6.2068801725 -11.0234886675 0 0 0
81 81 8 1.72 -0.0879541585 11.4194105555 -8.2784789513 0 0 0
82 82 8 1.72 -17.2591633105 -6.3008326725 -9.1050895787 0 0 0
83 83 8 1.72 -0.2791239505 -7.3960682825 -8.208672252 0 0 0
84 84 8 1.72 -4.5233524945 -6.6860880305 -8.727461622 0 0 0
85 85 8 1.72 12.8742038255 -2.7774385445 -8.3951934161 0 0 0
86 131 8 1.72 -15.4403672017 -0.6347453025 -7.6810329112 0 0 0
87 137 8 1.72 4.2209885615 -3.4200485905 -5.4042538217 0 0 0
88 141 8 1.72 16.6975234415 -0.1830968445 -8.0670435133 0 0 0
89 142 8 1.72 -6.7764577105 -4.0197160805 -7.5699555565 0 0 0
90 143 8 1.72 -10.0199794705 3.3124372355 -7.6486414344 0 0 0
91 147 8 1.72 -11.4991443025 6.3620351695 -6.041334879 0 0 0
92 151 8 1.72 -3.9625344145 -12.0873997177 -4.8470269552 0 0 0
93 152 8 1.72 -4.0528217425 -9.2749930125 -5.6078907707 0 0 0
94 155 8 1.72 7.4738096495 -10.1326966593 -3.9436581664 0 0 0
95 156 8 1.72 -7.0828019665 -9.0226741785 -6.6021835157 0 0 0
96 157 8 1.72 -19.1759106894 9.2438965735 -5.8616191379 0 0 0
97 158 8 1.72 6.1926747695 -7.6792786985 -4.0476672277 0 0 0
98 162 8 1.72 7.9593565295 5.8535141315 -4.0909824307 0 0 0
99 163 8 1.72 -13.3036331665 8.0209607255 -5.0353297966 0 0 0
100 165 8 1.72 3.7017125615 1.6839773435 -5.7957847026 0 0 0
101 167 8 1.72 -9.0698854225 0.4046950495 -7.9544765596 0 0 0
102 168 8 1.72 -17.1246317617 4.6205566835 -8.2321261346 0 0 0
103 169 8 1.72 -0.7440522385 8.7955051355 -6.5660826452 0 0 0
104 170 8 1.72 -3.6040910545 1.8926270555 -6.1308276518 0 0 0
105 171 8 1.72 9.5238541295 2.1011013895 -6.5167798383 0 0 0
106 172 8 1.72 -16.0717801393 2.1578236455 -6.5383936281 0 0 0
107 173 8 1.72 -2.4767380945 -7.8472407145 -7.3272093311 0 0 0
108 174 8 1.72 12.5289091055 8.1611629095 -4.7236238988 0 0 0
109 175 8 1.72 13.8789885935 6.1863064135 -6.827346631 0 0 0
110 176 8 1.72 -8.2820341585 -6.3537968285 -5.9786256809 0 0 0
111 177 8 1.72 6.4322849135 -4.5519632565 -3.2888187521 0 0 0
112 178 8 1.72 7.3809307055 -9.0724564765 -6.4640889238 0 0 0
113 179 8 1.72 -19.1986518911 -7.1352811965 -3.7544206746 0 0 0
114 180 8 1.72 -15.7977777265 -8.3127189805 -7.5373596249 0 0 0
115 181 8 1.72 4.5174999215 -10.9525712715 0.1903296207 0 0 0
116 182 8 1.72 17.6096960495 -11.9988388385 1.1189339694 0 0 0
117 183 8 1.72 6.9977526575 12.1866391975 0.3478474156 0 0 0
118 184 8 1.72 -8.0821367185 -11.4013836167 1.6071427478 0 0 0
119 185 8 1.72 -2.7663511825 -11.6200824881 1.3384307669 0 0 0
120 186 8 1.72 -17.4012448465 -11.6973264755 0.2996252981 0 0 0
121 187 8 1.72 -3.0106491025 8.6405210915 1.0593500085 0 0 0
122 188 8 1.72 -14.8795262545 9.4670274975 -1.2787655114 0 0 0
123 189 8 1.72 11.5607880815 6.6154563795 1.2831987717 0 0 0
124 190 8 1.72 -2.2683035665 10.9369957855 2.9369457672 0 0 0
125 191 8 1.72 -16.0465614289 10.7752972695 1.0621247517 0 0 0
126 192 8 1.72 9.5572402415 9.1957427855 1.3325015786 0 0 0
127 193 8 1.72 -8.9052796945 7.8369390955 1.0398683898 0 0 0
128 194 8 1.72 6.6459026735 9.1273954735 0.5910025504 0 0 0
129 195 8 1.72 18.1047328175 8.6110074795 -0.8608891733 0 0 0
130 196 8 1.72 15.8640902255 -9.6063822705 2.093219355 0 0 0
131 197 8 1.72 15.0651102575 8.6782774695 -0.8081398432 0 0 0
132 198 8 1.72 -10.5517562065 10.4705905215 1.2789636372 0 0 0
133 199 8 1.72 13.5292728815 -8.5340460165 0.9790577003 0 0 0
134 200 8 1.72 4.2812436335 9.2887432335 2.3165131695 0 0 0
135 201 8 1.72 5.2445244335 -8.9036426245 2.0869980885 0 0 0
136 202 8 1.72 -10.0993286545 -9.6806673805 1.8899328999 0 0 0
137 203 8 1.72 -12.5923870225 -7.6832873385 1.6659673053 0 0 0
138 204 8 1.72 -16.6632326449 -10.7736130549 2.9706808039 0 0 0
139 205 8 1.72 -4.0261433425 -8.9683069985 2.0484729686 0 0 0
140 206 8 1.72 9.4469822255 -11.0852121583 1.0420297688 0 0 0
141 207 8 1.72 6.2369228015 3.6740666715 2.4835527151 0 0 0
142 208 8 1.72 2.7882060335 -7.5575914205 2.8261604907 0 0 0
143 209 8 1.72 -17.3596798993 -7.5737011425 3.3158880759 0 0 0
144 210 8 1.72 14.7317064815 2.5566582715 3.1572311759 0 0 0
145 211 8 1.72 8.2114674095 1.4475928535 3.6438627317 0 0 0
146 212 8 1.72 -5.9510280145 -6.8110573825 1.6593371293 0 0 0
147 213 8 1.72 -12.7263888145 2.8482617775 1.19718173 0 0 0
148 214 8 1.72 -13.0432900945 -2.2770851105 0.4431233375 0 0 0
149 215 8 1.72 11.9344000175 -5.3074916805 2.9287967843 0 0 0
150 216 8 1.72 8.2979435375 -8.1282463785 1.650925276 0 0 0
151 217 8 1.72 10.5984600815 -2.7373521445 3.5670753624 0 0 0
152 218 8 1.72 -10.4236998865 1.1981051215 2.3951406318 0 0 0
153 219 8 1.72 -15.2890015825 -2.3392941925 2.2137600447 0 0 0
154 220 8 1.72 -6.7195564945 4.7039113415 2.0231497852 0 0 0
155 221 8 1.72 -0.5929000465 -4.1013420125 1.9583960393 0 0 0
156 222 8 1.72 17.5020677615 -4.2003554205 4.0194753485 0 0 0
157 223 8 1.72 -0.6182445265 3.7741072935 2.3770901965 0 0 0
158 224 8 1.72 -1.9919915665 -1.9382798685 3.5875208392 0 0 0
159 225 8 1.72 -8.8037874385 -3.4174429745 2.4728626515 0 0 0
160 226 8 1.72 17.9945129135 6.6966563935 1.3039363267 0 0 0
161 227 8 1.72 15.2890182575 -0.2431011745 2.4171633311 0 0 0
162 228 8 1.72 5.6087608175 -4.5738103445 2.691191136 0 0 0
163 229 8 1.72 -17.8806556945 5.2369602455 3.0105494837 0 0 0
164 230 8 1.72 0.8883990575 2.4096163455 4.4686332661 0 0 0
165 231 8 1.72 17.5356444335 -0.9596455745 4.4897797307 0 0 0
166 232 8 1.72 -4.8201306385 2.5659783595 3.3946615773 0 0 0
167 233 8 1.72 2.4827383535 0.2492850875 5.1954699667 0 0 0
168 234 8 1.72 -9.7701171985 -1.1146045645 4.4125834519 0 0 0
169 235 8 1.72 -8.6163526225 11.6571730155 3.4577212693 0 0 0
170 236 8 1.72 18.0954716015 11.2570856895 3.5605620176 0 0 0
171 237 8 1.72 6.5196376175 12.4637113835 5.1044875949 0 0 0
172 238 8 1.72 13.6419700655 -9.7631200945 4.3941533149 0 0 0
173 239 8 1.72 7.0291950575 9.3195095455 6.0090831123 0 0 0
174 241 8 1.72 -6.7405943185 9.9087295175 4.5183449826 0 0 0
175 242 8 1.72 1.3949075375 -9.6862544225 4.2262667425 0 0 0
176 243 8 1.72 -12.6193322065 -9.4245403385 6.48146125 0 0 0
177 244 8 1.72 -7.8374576785 -8.7039121365 6.1952245747 0 0 0
178 245 8 1.72 -0.8032020625 -11.7084103651 3.4398168732 0 0 0
179 246 8 1.72 -16.9743828241 9.9816867655 3.5081339735 0 0 0
180 248 8 1.72 8.4691045295 -10.2679080865 5.201048661 0 0 0
181 249 8 1.72 -19.0036311102 -11.2784837251 4.7274145869 0 0 0
182 250 8 1.72 -17.0663204017 -7.4058894505 6.1340925991 0 0 0
183 251 8 1.72 -11.3454386065 -6.8053951785 7.0954097108 0 0 0
184 252 8 1.72 -9.0847491025 10.3491287295 6.0830373227 0 0 0
185 253 8 1.72 16.1216130095 8.8886308535 4.6229089926 0 0 0
186 260 8 1.72 -12.4022081425 -6.0938365245 4.5603458335 0 0 0
187 308 8 1.72 18.5620768175 2.7420328175 7.4628441368 0 0 0
188 309 8 1.72 0.0717351215 0.8575210455 6.583367348 0 0 0
189 316 8 1.72 -10.6496659345 -5.3667193365 8.638838755 0 0 0
190 317 8 1.72 4.5393380975 -4.9719434585 9.0170508681 0 0 0
191 318 8 1.72 6.2887551215 8.4791733315 8.6001091803 0 0 0
192 319 8 1.72 -2.6442022225 -7.0919878845 6.4438123649 0 0 0
193 320 8 1.72 -8.4025443025 -6.9854332225 7.5928481615 0 0 0
194 321 8 1.72 16.9035569135 0.1897317295 7.3870498335 0 0 0
195 322 8 1.72 -4.6237395025 -4.6049274125 6.5244259592 0 0 0
196 323 8 1.72 -10.3102785745 1.1654848135 8.2812765734 0 0 0
197 324 8 1.72 7.9719716015 -3.0536839485 7.6685548413 0 0 0
198 326 8 1.72 -11.9801939665 9.8150275575 6.7111807859 0 0 0
199 327 8 1.72 -14.1569989585 4.6747484855 6.6938313384 0 0 0
200 328 8 1.72 6.0293267375 0.7052428335 8.9324065941 0 0 0
201 329 8 1.72 8.5341998255 -8.6690119145 9.4579137637 0 0 0
202 330 8 1.72 13.5241277615 -9.4479407745 7.3197842148 0 0 0
203 331 8 1.72 -1.6660577425 -11.7299568051 6.121825313 0 0 0
204 332 8 1.72 -2.3775325585 -9.1499234445 7.5890511444 0 0 0
205 334 8 1.72 15.1903844015 -7.0478677905 6.7109179155 0 0 0
206 335 8 1.72 9.9264692975 -12.2814862911 8.9231185061 0 0 0
207 336 8 1.72 -5.1447686545 -8.7705056685 7.0272678573 0 0 0
208 337 8 1.72 16.6144773935 9.8291830675 8.1406701086 0 0 0
209 338 8 1.72 6.9200041775 -11.1579263825 9.0451487948 0 0 0
210 339 8 1.72 18.0120825455 -9.7237602605 8.8141441147 0 0 0
211 340 8 1.72 -17.2554588241 -10.2515703731 9.671627412 0 0 0
212 341 8 1.72 -15.6655100305 -7.9811793985 10.1941845914 0 0 0
213 342 8 1.72 7.7125813295 6.1759591115 9.7268594072 0 0 0
214 343 8 1.72 -12.5082738385 6.9294581615 7.8869709493 0 0 0
215 345 8 1.72 4.6644979055 3.4254808835 8.6778604078 0 0 0
216 346 8 1.72 1.5954147695 7.8511447135 8.3840004905 0 0 0
217 347 8 1.72 -7.9239338065 -0.3406865045 6.8889980185 0 0 0
218 348 8 1.72 -19.0511190433 5.2424721255 9.3705823699 0 0 0
219 349 8 1.72 0.9757136495 10.8756635935 9.1094352154 0 0 0
220 350 8 1.72 -2.6789984785 1.8279626815 7.0700281117 0 0 0
221 351 8 1.72 11.7578652335 1.7415013275 6.7662959498 0 0 0
222 352 8 1.72 -12.9566996305 -0.8447479305 8.1139449497 0 0 0
223 353 8 1.72 -0.8978341585 -7.0320336625 9.0643091273 0 0 0
224 354 8 1.72 12.9005773295 8.3693867035 10.4781138486 0 0 0
225 355 8 1.72 13.8838669295 6.6892654635 8.2340767298 0 0 0
226 356 8 1.72 -5.7517784785 -6.0828378185 8.536436124 0 0 0
227 357 8 1.72 7.4455686575 -5.7721682185 9.1723488684 0 0 0
228 358 8 1.72 10.4821041455 -9.8009265805 7.5010771784 0 0 0
229 359 8 1.72 -18.3006118225 -7.6868450065 8.8042718702 0 0 0
230 360 8 1.72 -14.4392564305 -10.3788547147 8.759496276 0 0 0
231 1 1 1.43 -14.1801329425 -6.8205277945 13.0917467724 0 0 0
232 2 1 1.43 6.5801594735 -0.1037758805 -13.9798082281 0 0 0
233 3 1 1.43 12.0378740975 -5.1897629345 -14.5078009836 0 0 0
234 4 1 1.43 -1.8747590545 4.5753342135 -14.1784447977 0 0 0
235 5 1 1.43 0.1791728495 -5.3883659925 13.8043592626 0 0 0
236 6 1 1.43 -4.5949649425 -4.3079623505 -13.7739427221 0 0 0
237 7 1 1.43 4.0190330735 -5.8424947965 -13.685340788 0 0 0
238 8 1 1.43 -12.4759548625 -1.3609104385 -14.2788262472 0 0 0
239 9 1 1.43 -0.0628383505 11.8850892535 -13.2244384043 0 0 0
240 10 1 1.43 7.9288288175 -5.7442580625 -14.1504228113 0 0 0
241 11 1 1.43 -17.4443495185 1.8027583575 -13.7770124644 0 0 0
242 12 1 1.43 -3.2385207505 11.6819263675 -12.8768769817 0 0 0
243 13 1 1.43 15.5000825135 -0.2265404805 -12.3225621353 0 0 0
244 14 1 1.43 -1.9654656145 -0.8636386465 -12.4788765678 0 0 0
245 15 1 1.43 1.2832393775 -2.1713321765 -12.7362909624 0 0 0
246 16 1 1.43 -5.3122708945 -0.1548609865 -12.8489835098 0 0 0
247 17 1 1.43 9.7254284975 11.9246244655 -12.4763792989 0 0 0
248 18 1 1.43 9.5901308975 0.8005482495 -11.2419339833 0 0 0
249 19 1 1.43 -1.9352809105 3.4127785055 -8.6127040815 0 0 0
250 20 1 1.43 10.2716496815 8.3732199655 -12.5204831131 0 0 0
251 21 1 1.43 -11.9633103505 11.4515297835 -12.5326481718 0 0 0
252 22 1 1.43 15.5378896175 11.7172274535 -12.5882657103 0 0 0
253 23 1 1.43 -7.1522420305 7.4154305995 -13.1238817078 0 0 0
254 24 1 1.43 13.2816592175 5.1936168255 -12.5959736551 0 0 0
255 25 1 1.43 9.7979556335 -7.8773305685 -11.7776930992 0 0 0
256 26 1 1.43 16.5686667695 7.9597538035 -12.7132167814 0 0 0
257 27 1 1.43 3.3675084335 12.3049692395 -12.8188381146 0 0 0
258 28 1 1.43 -4.5886764625 4.2455484115 -11.9508370799 0 0 0
259 29 1 1.43 6.9442052975 7.4772638715 -11.4154284579 0 0 0
260 30 1 1.43 8.0975506415 3.3134143415 -9.1665428404 0 0 0
261 31 1 1.43 11.7518054255 -10.8601220115 -12.2056081664 0 0 0
262 32 1 1.43 -11.0301380305 4.5812720115 -12.5583539778 0 0 0
263 33 1 1.43 17.7790657775 4.8525316695 -14.0432271764 0 0 0
264 34 1 1.43 16.2242486255 1.9592957495 -9.6215423228 0 0 0
265 35 1 1.43 -9.4473466705 1.2040679735 -13.2827372211 0 0 0
266 36 1 1.43 -0.4506660625 -9.9964955991 -13.9897593338 0 0 0
267 37 1 1.43 -13.8428798545 -9.6529576565 -13.1199883049 0 0 0
268 38 1 1.43 -13.2487518865 6.9424611875 -12.831423766 0 0 0
269 39 1 1.43 -15.9391770577 -6.8742185165 -13.4863800116 0 0 0
270 40 1 1.43 16.3553920175 -6.8524716445 -12.1168455892 0 0 0
271 41 1 1.43 -6.8296620625 -11.0940587257 -12.8231696349 0 0 0
272 42 1 1.43 3.0398976815 0.9840687995 -11.8323993535 0 0 0
273 43 1 1.43 5.2123960175 -1.9237986565 -11.9297782388 0 0 0
274 44 1 1.43 18.2519594735 -1.1793441005 -10.6558789945 0 0 0
275 45 1 1.43 13.1372147375 -5.2906804465 -11.217253372 0 0 0
276 46 1 1.43 -8.6434121425 -6.8970928185 -12.4061549276 0 0 0
277 47 1 1.43 17.5922407535 -10.1351569621 -12.3291514204 0 0 0
278 48 1 1.43 5.4400771055 -9.8604799385 -13.9373283689 0 0 0
279 49 1 1.43 -2.3835923665 -7.1164906965 -13.5646336137 0 0 0
280 50 1 1.43 3.6853244015 -8.0665884845 -11.0278406333 0 0 0
281 51 1 1.43 1.4807357615 -5.1347694045 -10.7241960949 0 0 0
282 52 1 1.43 -11.7034246225 -4.5781947945 -13.7526765055 0 0 0
283 53 1 1.43 -18.8232683569 -4.0287355205 -12.7815192779 0 0 0
284 54 1 1.43 3.1826652335 0.9399737595 -8.6752964484 0 0 0
285 55 1 1.43 7.5328070255 -5.1245724265 -10.5648674149 0 0 0
286 56 1 1.43 11.9473962095 -1.9202409885 -11.1506887411 0 0 0
287 57 1 1.43 -13.3596196945 -2.8887534665 -11.7026289914 0 0 0
288 58 1 1.43 -5.8719456145 -5.1573681125 -10.7575806377 0 0 0
289 59 1 1.43 -15.1428420625 0.6805145355 -11.7751520185 0 0 0
290 60 1 1.43 -10.2912987985 6.0502130855 -9.4452438971 0 0 0
291 61 1 1.43 -18.9683500695 10.5369084595 -11.7370066003 0 0 0
292 62 1 1.43 -6.1720776145 10.4505974295 -10.8253135816 0 0 0
293 63 1 1.43 15.3530845295 6.7858987415 -9.5214763178 0 0 0
294 64 1 1.43 6.7683565295 11.1990105175 -11.2990936949 0 0 0
295 65 1 1.43 9.9393130415 6.5036403775 -6.3483967329 0 0 0
296 66 1 1.43 15.1704137135 -11.5055356001 -9.8418569394 0 0 0
297 67 1 1.43 12.7320079535 10.7056471495 -10.5839109162 0 0 0
298 68 1 1.43 12.3635030255 -8.8525074105 -9.1766779553 0 0 0
299 69 1 1.43 -0.5879073745 -2.0468889585 -9.5063758728 0 0 0
300 70 1 1.43 2.2683964655 10.1646561275 -10.3054435221 0 0 0
301 71 1 1.43 -10.8212842705 -9.0543424345 -11.1163987557 0 0 0
302 72 1 1.43 -7.2910459345 -2.0286747005 -10.0983892576 0 0 0
303 73 1 1.43 1.2173437295 -11.2432001769 -10.2895544658 0 0 0
304 74 1 1.43 -12.3500328145 8.8519517975 -10.9215533617 0 0 0
305 75 1 1.43 -9.7459160785 12.3353346875 -10.5888762463 0 0 0
306 76 1 1.43 3.3027561455 6.8029354615 -9.2691499261 0 0 0
307 77 1 1.43 -4.1511888145 -11.7159115327 -10.3773531848 0 0 0
308 78 1 1.43 13.1028377135 3.9368330235 -8.9860969037 0 0 0
309 79 1 1.43 8.9710776815 -10.8541316001 -9.536372308 0 0 0
310 80 1 1.43 -15.7089272209 12.1584033395 -11.819051378 0 0 0
311 81 1 1.43 0.0984516335 -7.7113227645 -11.4013794946 0 0 0
312 83 1 1.43 6.7140850415 0.5463503655 -7.8380249653 0 0 0
313 85 1 1.43 -17.2588622257 7.6242055815 -12.4581536167 0 0 0
314 86 1 1.43 -10.6439110225 1.3023047075 -10.2936435612 0 0 0
315 87 1 1.43 -1.8828006865 10.6306354735 -10.2815223142 0 0 0
316 88 1 1.43 -13.5515136145 4.9736928135 -9.9954024702 0 0 0
317 89 1 1.43 -4.6785064465 0.8816229935 -9.4291211783 0 0 0
318 90 1 1.43 18.5033843375 -8.1106584705 -9.5775553399 0 0 0
319 91 1 1.43 -6.2703303505 -8.6722438805 -10.1078525926 0 0 0
320 92 1 1.43 9.3164486255 -2.2536095125 -8.9424019989 0 0 0
321 93 1 1.43 11.4224415215 -5.5809560905 -8.6311342184 0 0 0
322 94 1 1.43 -8.3319989905 -6.2744758645 -8.8093019449 0 0 0
323 95 1 1.43 17.4573242735 -4.6681887625 -8.9645707374 0 0 0
324 96 1 1.43 4.8934366895 -6.4280819385 -8.5806630986 0 0 0
325 97 1 1.43 -7.2968008465 4.8125705395 -9.7237697069 0 0 0
326 98 1 1.43 -14.3252253265 -6.0149665325 -10.5860138795 0 0 0
327 99 1 1.43 -17.0260626961 -2.9768934385 -9.486426929 0 0 0
328 100 1 1.43 18.6247710575 5.6211382815 -10.2907811944 0 0 0
329 101 1 1.43 -1.8488810065 -5.3395858545 -10.1644281477 0 0 0
330 103 1 1.43 -3.8624904145 -3.1841902345 -8.5362964139 0 0 0
331 104 1 1.43 13.1510493935 0.1556081815 -8.4818238221 0 0 0
332 105 1 1.43 2.3790737135 4.0295077695 -7.1120644995 0 0 0
333 106 1 1.43 5.6745040175 -2.5815663725 -8.6255847319 0 0 0
334 118 1 1.43 12.7302929135 10.9344903855 -6.652420973 0 0 0
335 121 1 1.43 -12.7503231505 -8.9307259985 -8.8520037836 0 0 0
336 125 1 1.43 -17.5340346769 10.9238925435 -8.7975896075 0 0 0
337 133 1 1.43 -16.3376075281 -10.9139705737 -8.9620296567 0 0 0
338 135 1 1.43 -13.4041345105 11.2111115995 -8.8774145905 0 0 0
339 190 1 1.43 -12.8298628945 3.1275387155 -6.9186794967 0 0 0
340 220 1 1.43 0.6278273135 -8.0167310245 -5.4569155284 0 0 0
341 239 1 1.43 15.4902115055 8.3092069955 -5.0590757575 0 0 0
342 245 1 1.43 -12.2686636945 -1.1303885845 -6.785521027 0 0 0
343 250 2 2.2896396396 5.4882125615 -12.2750333829 -5.5513736313 0 0 0
344 252 2 2.2896396396 -7.9953175825 6.1565422615 -6.2260743659 0 0 0
345 254 2 2.2896396396 -15.9068047249 7.8118600415 -7.5477284024 0 0 0
346 256 2 2.2896396396 -18.8032062001 -2.1804267785 -6.735400401 0 0 0
347 257 2 2.2896396396 17.3408540015 12.0665303215 -4.323447502 0 0 0
348 258 2 2.2896396396 -15.1263395665 5.2705576595 -5.1102186574 0 0 0
349 259 2 2.2896396396 13.4013308975 3.3201288135 -4.8619813611 0 0 0
350 261 2 2.2896396396 2.0251275695 -11.4204446999 -6.064905593 0 0 0
351 262 2 2.2896396396 6.2179811375 3.6681288735 -6.2474252853 0 0 0
352 263 2 2.2896396396 0.0189500015 1.0445491555 -6.4423583027 0 0 0
353 267 2 2.2896396396 -1.5825162385 -11.3461671061 -7.2643833017 0 0 0
354 268 2 2.2896396396 -19.1597386244 2.2309562715 -6.6202631588 0 0 0
355 269 2 2.2896396396 -10.0396071505 3.9980649995 -4.13756891 0 0 0
356 270 2 2.2896396396 -6.9461323345 2.8010099335 -6.8782850761 0 0 0
357 271 2 2.2896396396 9.3047101295 9.4093030815 -4.0636439074 0 0 0
358 273 2 2.2896396396 -7.6451445265 12.2544353215 -5.8778878959 0 0 0
359 274 2 2.2896396396 7.4201860655 -2.4383827625 -5.5631151765 0 0 0
360 275 2 2.2896396396 -5.0656862545 -6.0997993765 -5.5740096949 0 0 0
361 276 2 2.2896396396 17.8088693615 6.1128731395 -6.6991826992 0 0 0
362 277 2 2.2896396396 -8.2483431505 -1.4154279425 -5.6195154847 0 0 0
363 278 2 2.2896396396 16.9066820975 -4.2169912765 -4.6903561872 0 0 0
364 279 2 2.2896396396 -2.5499512465 -8.2365798745 -2.756418536 0 0 0
365 280 2 2.2896396396 8.8211450735 -5.8465785985 -4.8119483586 0 0 0
366 281 2 2.2896396396 10.5379382255 -12.0518831673 -4.2408769835 0 0 0
367 282 2 2.2896396396 -18.2114640433 -5.8624878885 -6.2872355494 0 0 0
368 283 2 2.2896396396 -16.3426611793 -11.2811093843 -5.4778283304 0 0 0
369 284 2 2.2896396396 18.4021588655 -0.3938510925 -3.1599538325 0 0 0
370 285 2 2.2896396396 -16.1249235121 9.5124002915 -4.0774592082 0 0 0
371 286 2 2.2896396396 -3.7024581265 3.9954593835 -2.7971342427 0 0 0
372 287 2 2.2896396396 8.5206700655 2.5964189695 -2.8978428199 0 0 0
373 288 2 2.2896396396 0.3268568495 10.5534190455 -3.5184798723 0 0 0
374 289 2 2.2896396396 13.3627615535 11.0494381375 -3.1453499205 0 0 0
375 290 2 2.2896396396 -8.0430338065 -6.7659601825 -2.4868011125 0 0 0
376 291 2 2.2896396396 -5.6935814545 -9.9310821105 -0.3991718914 0 0 0
377 292 2 2.2896396396 -9.0229695505 -12.2840731166 -1.2188018488 0 0 0
378 293 2 2.2896396396 -14.3979049105 6.3669206995 -1.6782117126 0 0 0
379 294 2 2.2896396396 1.8249633455 8.4639404995 -0.7327836572 0 0 0
380 295 2 2.2896396396 15.8720175215 -9.2070966725 -3.6453878676 0 0 0
381 296 2 2.2896396396 12.9938755055 5.8868860595 -2.0716411021 0 0 0
382 297 2 2.2896396396 -14.0319153745 -6.0710373845 -5.0294298162 0 0 0
383 298 2 2.2896396396 -14.5863687505 -5.4036489325 -0.9430507823 0 0 0
384 299 2 2.2896396396 9.1278704495 -0.9135712685 1.1895000723 0 0 0
385 300 2 2.2896396396 13.4805276335 -5.5920299585 0.2939297724 0 0 0
386 301 2 2.2896396396 0.0707823215 4.2721307055 -0.5770475396 0 0 0
387 302 2 2.2896396396 -0.4242163345 -4.6238431825 -1.6545241673 0 0 0
388 303 2 2.2896396396 -6.4881785425 -4.1858491545 0.3623929119 0 0 0
389 304 2 2.2896396396 3.5737324655 -5.8689017125 -0.1409455193 0 0 0
390 305 2 2.2896396396 -10.2440780305 -1.3011315945 -0.178506781 0 0 0
391 306 2 2.2896396396 4.3340287535 -12.3738025144 2.7937982217 0 0 0
392 307 2 2.2896396396 7.5389049455 -5.0520912045 -0.1563672504 0 0 0
393 308 2 2.2896396396 -16.6936803217 -1.8928569665 -0.6229330311 0 0 0
394 309 2 2.2896396396 1.1129168495 9.9989489715 3.3301122862 0 0 0
395 310 1 1.43 -18.3883990033 0.3281801335 1.8417984059 0 0 0
396 311 1 1.43 0.9339047855 -1.1174857745 2.7454884808 0 0 0
397 312 1 1.43 4.0404901295 -1.8386401105 3.0243647844 0 0 0
398 313 1 1.43 -2.0353630225 1.2061975635 2.2441361816 0 0 0
399 314 1 1.43 12.7900906415 9.1420270095 2.3116354629 0 0 0
400 315 1 1.43 14.6026592495 -2.8567344545 2.9448026718 0 0 0
401 316 1 1.43 -1.4116601425 7.3172940815 3.4599118561 0 0 0
402 317 1 1.43 15.2171771375 6.5119081975 2.8646564028 0 0 0
403 318 1 1.43 -6.4201486225 10.4480669755 1.1127127029 0 0 0
404 319 1 1.43 -17.0760618289 7.0947895075 0.8427739934 0 0 0
405 320 1 1.43 -5.4490167505 7.5086565335 2.1356875311 0 0 0
406 321 1 1.43 16.9112174255 3.1686773835 1.229368752 0 0 0
407 322 1 1.43 10.8114299375 -7.8841452565 0.3063430976 0 0 0
408 323 1 1.43 -12.8356559185 8.3909581975 0.8776773431 0 0 0
409 324 1 1.43 7.1015316335 10.2374881055 3.2017731075 0 0 0
410 325 1 1.43 -3.2600540305 4.8178318795 1.7034409436 0 0 0
411 326 1 1.43 9.1974248495 6.6230978495 0.1072333613 0 0 0
412 327 1 1.43 11.8501343855 0.6774078395 3.4354356996 0 0 0
413 328 1 1.43 13.0809233135 -11.3824929007 1.6663470071 0 0 0
414 329 1 1.43 -10.1401847185 4.6222353015 1.8620978436 0 0 0
415 330 1 1.43 -14.4098720785 5.0424660435 2.1983675214 0 0 0
416 331 1 1.43 -16.6605000145 2.6955576475 0.9654760621 0 0 0
417 332 1 1.43 -7.8586479505 1.9082858055 1.0542678471 0 0 0
418 333 1 1.43 1.0307092655 -10.6609978303 1.342403031 0 0 0
419 334 1 1.43 -13.1918125585 -10.8136944441 3.0974135523 0 0 0
420 335 1 1.43 -11.9656351825 9.4830370035 -2.9444877148 0 0 0
421 336 1 1.43 -14.6694529105 -8.0903396765 3.8674778324 0 0 0
422 337 1 1.43 17.8911912815 -6.1238261625 1.8537736137 0 0 0
423 338 1 1.43 -7.0092076945 -9.2287683825 3.5121062376 0 0 0
424 339 1 1.43 2.9434362095 3.7316658175 1.8939343718 0 0 0
425 340 1 1.43 7.3281836975 -1.8480854685 4.312312992 0 0 0
426 341 1 1.43 -18.1260055057 -2.5650557865 2.81167341 0 0 0
427 342 1 1.43 16.1454711215 -4.2515908505 6.6895962039 0 0 0
428 343 1 1.43 -9.3904073425 -6.7701442005 1.2808913536 0 0 0
429 344 1 1.43 18.7325899055 -9.6665870325 2.1871809248 0 0 0
430 345 1 1.43 7.3408368815 -10.6587028839 2.6432318889 0 0 0
431 346 1 1.43 -2.6444308945 -5.7728947845 1.9828137802 0 0 0
432 347 1 1.43 6.3974505455 -7.1618634905 4.0347802483 0 0 0
433 348 1 1.43 2.1376341935 -4.7475347805 3.0218529116 0 0 0
434 349 1 1.43 -11.9453595985 -4.7244851005 1.7306042199 0 0 0
435 350 1 1.43 -18.4054998577 -4.8585240005 5.5700311018 0 0 0
436 351 1 1.43 4.6692619055 1.3707772895 3.8680911967 0 0 0
437 352 1 1.43 9.0770671535 -5.5290943105 3.2177497872 0 0 0
438 353 1 1.43 12.8666195375 -4.0603035605 5.6344927694 0 0 0
439 354 1 1.43 -12.3062040145 -2.3192509925 3.7442500228 0 0 0
440 355 1 1.43 -4.8940679185 -3.4655967625 3.6900403015 0 0 0
441 356 1 1.43 -14.8246449745 0.5603555515 2.3678021085 0 0 0
442 357 1 1.43 -8.1359127505 7.3880966855 3.9451414364 0 0 0
443 358 1 1.43 -14.7236862865 11.5928343435 4.6640336088 0 0 0
444 359 1 1.43 -4.2300806545 12.4607550115 4.7407041468 0 0 0
445 360 1 1.43 16.1349903215 9.9294992835 1.7041419313 0 0 0
446 361 1 1.43 10.7317377455 11.9973812815 2.9954490387 0 0 0
447 362 1 1.43 8.9668472495 11.7538062935 6.6530864239 0 0 0